<?xml version="1.0" encoding="UTF-8"?>

<!-- generated on 2023-07-13 15:10:28 by Eclipse SUMO GUI Version 1.14.1
<configuration xmlns:xsi="http://www.w3.org/2001/XMLSchema-instance" xsi:noNamespaceSchemaLocation="http://sumo.dlr.de/xsd/sumoConfiguration.xsd">

    <input>
        <net-file value="/home/mnetlab/SSD_2/alanqq0624/Veins/simulte_opencv2x_backup/simulte/simulations/Mode4_CAM/highway/lust_001_actuated/lust.net.xml"/>
        <route-files value="/home/mnetlab/SSD_2/alanqq0624/Veins/simulte_opencv2x_backup/simulte/simulations/Mode4_CAM/highway/lust_001_actuated/buslines.rou.xml,/home/mnetlab/SSD_2/alanqq0624/Veins/simulte_opencv2x_backup/simulte/simulations/Mode4_CAM/highway/lust_001_actuated/local.actuated.0.rou.xml,/home/mnetlab/SSD_2/alanqq0624/Veins/simulte_opencv2x_backup/simulte/simulations/Mode4_CAM/highway/lust_001_actuated/local.actuated.1.rou.xml,/home/mnetlab/SSD_2/alanqq0624/Veins/simulte_opencv2x_backup/simulte/simulations/Mode4_CAM/highway/lust_001_actuated/local.actuated.2.rou.xml,/home/mnetlab/SSD_2/alanqq0624/Veins/simulte_opencv2x_backup/simulte/simulations/Mode4_CAM/highway/lust_001_actuated/transit.rou.xml"/>
        <additional-files value="/home/mnetlab/SSD_2/alanqq0624/Veins/simulte_opencv2x_backup/simulte/simulations/Mode4_CAM/highway/lust_001_actuated/vtypes.add.xml,/home/mnetlab/SSD_2/alanqq0624/Veins/simulte_opencv2x_backup/simulte/simulations/Mode4_CAM/highway/lust_001_actuated/busstops.add.xml,/home/mnetlab/SSD_2/alanqq0624/Veins/simulte_opencv2x_backup/simulte/simulations/Mode4_CAM/highway/lust_001_actuated/e1detectors.add.xml,/home/mnetlab/SSD_2/alanqq0624/Veins/simulte_opencv2x_backup/simulte/simulations/Mode4_CAM/highway/lust_001_actuated/lust.poly.xml"/>
    </input>

    <output>
        <output-prefix value="TIME_"/>
        <summary-output value="/home/mnetlab/SSD_2/alanqq0624/Veins/simulte_opencv2x_backup/simulte/simulations/Mode4_CAM/highway/lust_001_actuated/due.actuated.summary.xml"/>
        <tripinfo-output value="/home/mnetlab/SSD_2/alanqq0624/Veins/simulte_opencv2x_backup/simulte/simulations/Mode4_CAM/highway/lust_001_actuated/due.actuated.tripinfo.xml"/>
        <collision-output value="/home/mnetlab/SSD_2/alanqq0624/Veins/simulte_opencv2x_backup/simulte/simulations/Mode4_CAM/highway/lust_001_actuated/due.actuated.collision.xml"/>
        <save-state.times value="999"/>
    </output>

    <time>
        <begin value="0"/>
        <step-length value="0.001"/>
    </time>

    <processing>
        <ignore-junction-blocker value="20"/>
        <collision.action value="warn"/>
        <scale value="5"/>
        <time-to-teleport value="600"/>
        <max-depart-delay value="600"/>
        <default.action-step-length value="0.1"/>
    </processing>

    <routing>
        <routing-algorithm value="dijkstra"/>
    </routing>

    <report>
        <verbose value="true"/>
        <log value="/home/mnetlab/SSD_2/alanqq0624/Veins/simulte_opencv2x_backup/simulte/simulations/Mode4_CAM/highway/lust_001_actuated/due.actuated.log"/>
    </report>

</configuration>
-->

<tripinfos xmlns:xsi="http://www.w3.org/2001/XMLSchema-instance" xsi:noNamespaceSchemaLocation="http://sumo.dlr.de/xsd/tripinfo_file.xsd">
    <tripinfo id="randUni834:1" depart="5.000" departLane="--32406#3_0" departPos="66.174" departSpeed="0.000" departDelay="0.000" arrival="28.710" arrivalLane="--31212_0" arrivalPos="8.256" arrivalSpeed="0.934" duration="23.710" routeLength="270.482" waitingTime="0.035" waitingCount="1" stopTime="0.000" timeLoss="5.863" rerouteNo="0" devices="tripinfo_randUni834:1 ssm_randUni834:1" vType="passenger2b" speedFactor="1.091" vaporized=""/>
    <tripinfo id="randUni834:1.2" depart="5.001" departLane="--32406#3_0" departPos="95.635" departSpeed="0.000" departDelay="0.001" arrival="29.809" arrivalLane="--31212_0" arrivalPos="46.852" arrivalSpeed="0.922" duration="24.808" routeLength="279.617" waitingTime="0.035" waitingCount="1" stopTime="0.000" timeLoss="5.590" rerouteNo="0" devices="tripinfo_randUni834:1.2 ssm_randUni834:1.2" vType="passenger2b" speedFactor="1.047" vaporized=""/>
    <tripinfo id="randUni834:1.3" depart="5.003" departLane="--32406#3_0" departPos="105.485" departSpeed="0.000" departDelay="0.003" arrival="31.034" arrivalLane="--31212_0" arrivalPos="103.221" arrivalSpeed="0.919" duration="26.031" routeLength="326.136" waitingTime="0.035" waitingCount="1" stopTime="0.000" timeLoss="5.127" rerouteNo="0" devices="tripinfo_randUni834:1.3 ssm_randUni834:1.3" vType="passenger2b" speedFactor="1.123" vaporized=""/>
    <tripinfo id="randUni834:1.1" depart="5.001" departLane="--32406#3_0" departPos="11.486" departSpeed="0.000" departDelay="0.001" arrival="41.915" arrivalLane="--31212_0" arrivalPos="140.699" arrivalSpeed="0.940" duration="36.914" routeLength="457.613" waitingTime="0.035" waitingCount="1" stopTime="0.000" timeLoss="4.820" rerouteNo="0" devices="tripinfo_randUni834:1.1 ssm_randUni834:1.1" vType="passenger2b" speedFactor="1.026" vaporized=""/>
    <tripinfo id="randUni834:1.4" depart="5.004" departLane="--32406#3_0" departPos="1.633" departSpeed="0.000" departDelay="0.004" arrival="44.745" arrivalLane="--31212_0" arrivalPos="141.051" arrivalSpeed="0.926" duration="39.741" routeLength="467.818" waitingTime="0.035" waitingCount="1" stopTime="0.000" timeLoss="5.769" rerouteNo="0" devices="tripinfo_randUni834:1.4 ssm_randUni834:1.4" vType="passenger2b" speedFactor="0.991" vaporized=""/>
