<?xml version="1.0" encoding="UTF-8"?>

<!-- generated on 2022-08-30 15:18:41 by Eclipse SUMO GUI Version 1.14.1
<configuration xmlns:xsi="http://www.w3.org/2001/XMLSchema-instance" xsi:noNamespaceSchemaLocation="http://sumo.dlr.de/xsd/sumoConfiguration.xsd">

    <input>
        <net-file value="lust.net.xml"/>
        <route-files value="buslines.rou.xml,local.actuated.0.rou.xml,local.actuated.1.rou.xml,local.actuated.2.rou.xml,transit.rou.xml"/>
        <additional-files value="vtypes.add.xml,busstops.add.xml,e1detectors.add.xml,lust.poly.xml"/>
    </input>

    <output>
        <output-prefix value="TIME_"/>
        <summary-output value="due.actuated.summary.xml"/>
        <tripinfo-output value="due.actuated.tripinfo.xml"/>
        <collision-output value="due.actuated.collision.xml"/>
    </output>

    <time>
        <begin value="0"/>
        <step-length value="0.001"/>
    </time>

    <processing>
        <ignore-junction-blocker value="20"/>
        <collision.action value="warn"/>
        <scale value="1"/>
        <time-to-teleport value="600"/>
        <max-depart-delay value="600"/>
        <default.action-step-length value="0.1"/>
    </processing>

    <routing>
        <routing-algorithm value="dijkstra"/>
    </routing>

    <report>
        <verbose value="true"/>
        <log value="due.actuated.log"/>
    </report>

    <traci_server>
        <remote-port value="54509"/>
    </traci_server>

    <random_number>
        <random value="false"/>
        <seed value="0"/>
    </random_number>

</configuration>
-->

<snapshot xmlns:xsi="http://www.w3.org/2001/XMLSchema-instance" xsi:noNamespaceSchemaLocation="http://sumo.dlr.de/xsd/state_file.xsd" version="1.14.1" time="999.099" type="micro">
    <route id="!0BEtoDE.10" state="0" edges="-30668#0 -30668#0-AddedOffRampEdge -30668#1 -30668#2-AddedOnRampEdge -30668#2 -30668#2-AddedOffRampEdge -30668#3 -30668#4-AddedOnRampEdge -30668#4 -30668#4-AddedOffRampEdge -30668#5 -30668#6-AddedOnRampEdge -30668#6 -30668#6-AddedOffRampEdge -30668#7 -30668#7-AddedOffRampEdge -30668#8 -30668#9-AddedOnRampEdge -30668#9 -30668#9-AddedOffRampEdge -30668#10 -30668#10-AddedOffRampEdge -30668#11 -30668#12-AddedOnRampEdge -30668#12 -30668#12-AddedOffRampEdge -30668#13 -30668#14-AddedOnRampEdge -30668#14 -30668#14-AddedOffRampEdge -30668#15 -30668#16-AddedOnRampEdge -30668#16"/>
    <route id="!0BEtoDE.3" state="0" edges="-30668#0 -30668#0-AddedOffRampEdge -30668#1 -30668#2-AddedOnRampEdge -30668#2 -30668#2-AddedOffRampEdge -30668#3 -30668#4-AddedOnRampEdge -30668#4 -30668#4-AddedOffRampEdge -30668#5 -30668#6-AddedOnRampEdge -30668#6 -30668#6-AddedOffRampEdge -30668#7 -30668#7-AddedOffRampEdge -30668#8 -30668#9-AddedOnRampEdge -30668#9 -30668#9-AddedOffRampEdge -30668#10 -30668#10-AddedOffRampEdge -30668#11 -30668#12-AddedOnRampEdge -30668#12 -30668#12-AddedOffRampEdge -30668#13 -30668#14-AddedOnRampEdge -30668#14 -30668#14-AddedOffRampEdge -30668#15 -30668#16-AddedOnRampEdge -30668#16"/>
    <route id="!0BEtoDE.4" state="0" edges="-30668#0 -30668#0-AddedOffRampEdge -30668#1 -30668#2-AddedOnRampEdge -30668#2 -30668#2-AddedOffRampEdge -30668#3 -30668#4-AddedOnRampEdge -30668#4 -30668#4-AddedOffRampEdge -30668#5 -30668#6-AddedOnRampEdge -30668#6 -30668#6-AddedOffRampEdge -30668#7 -30668#7-AddedOffRampEdge -30668#8 -30668#9-AddedOnRampEdge -30668#9 -30668#9-AddedOffRampEdge -30668#10 -30668#10-AddedOffRampEdge -30668#11 -30668#12-AddedOnRampEdge -30668#12 -30668#12-AddedOffRampEdge -30668#13 -30668#14-AddedOnRampEdge -30668#14 -30668#14-AddedOffRampEdge -30668#15 -30668#16-AddedOnRampEdge -30668#16"/>
    <route id="!0BEtoDE.5" state="0" edges="-30668#0 -30668#0-AddedOffRampEdge -30668#1 -30668#2-AddedOnRampEdge -30668#2 -30668#2-AddedOffRampEdge -30668#3 -30668#4-AddedOnRampEdge -30668#4 -30668#4-AddedOffRampEdge -30668#5 -30668#6-AddedOnRampEdge -30668#6 -30668#6-AddedOffRampEdge -30668#7 -30668#7-AddedOffRampEdge -30668#8 -30668#9-AddedOnRampEdge -30668#9 -30668#9-AddedOffRampEdge -30668#10 -30668#10-AddedOffRampEdge -30668#11 -30668#12-AddedOnRampEdge -30668#12 -30668#12-AddedOffRampEdge -30668#13 -30668#14-AddedOnRampEdge -30668#14 -30668#14-AddedOffRampEdge -30668#15 -30668#16-AddedOnRampEdge -30668#16"/>
    <route id="!0BEtoDE.6" state="0" edges="-30668#0 -30668#0-AddedOffRampEdge -30668#1 -30668#2-AddedOnRampEdge -30668#2 -30668#2-AddedOffRampEdge -30668#3 -30668#4-AddedOnRampEdge -30668#4 -30668#4-AddedOffRampEdge -30668#5 -30668#6-AddedOnRampEdge -30668#6 -30668#6-AddedOffRampEdge -30668#7 -30668#7-AddedOffRampEdge -30668#8 -30668#9-AddedOnRampEdge -30668#9 -30668#9-AddedOffRampEdge -30668#10 -30668#10-AddedOffRampEdge -30668#11 -30668#12-AddedOnRampEdge -30668#12 -30668#12-AddedOffRampEdge -30668#13 -30668#14-AddedOnRampEdge -30668#14 -30668#14-AddedOffRampEdge -30668#15 -30668#16-AddedOnRampEdge -30668#16"/>
    <route id="!0BEtoDE.7" state="0" edges="-30668#0 -30668#0-AddedOffRampEdge -30668#1 -30668#2-AddedOnRampEdge -30668#2 -30668#2-AddedOffRampEdge -30668#3 -30668#4-AddedOnRampEdge -30668#4 -30668#4-AddedOffRampEdge -30668#5 -30668#6-AddedOnRampEdge -30668#6 -30668#6-AddedOffRampEdge -30668#7 -30668#7-AddedOffRampEdge -30668#8 -30668#9-AddedOnRampEdge -30668#9 -30668#9-AddedOffRampEdge -30668#10 -30668#10-AddedOffRampEdge -30668#11 -30668#12-AddedOnRampEdge -30668#12 -30668#12-AddedOffRampEdge -30668#13 -30668#14-AddedOnRampEdge -30668#14 -30668#14-AddedOffRampEdge -30668#15 -30668#16-AddedOnRampEdge -30668#16"/>
    <route id="!0BEtoDE.8" state="0" edges="-30668#0 -30668#0-AddedOffRampEdge -30668#1 -30668#2-AddedOnRampEdge -30668#2 -30668#2-AddedOffRampEdge -30668#3 -30668#4-AddedOnRampEdge -30668#4 -30668#4-AddedOffRampEdge -30668#5 -30668#6-AddedOnRampEdge -30668#6 -30668#6-AddedOffRampEdge -30668#7 -30668#7-AddedOffRampEdge -30668#8 -30668#9-AddedOnRampEdge -30668#9 -30668#9-AddedOffRampEdge -30668#10 -30668#10-AddedOffRampEdge -30668#11 -30668#12-AddedOnRampEdge -30668#12 -30668#12-AddedOffRampEdge -30668#13 -30668#14-AddedOnRampEdge -30668#14 -30668#14-AddedOffRampEdge -30668#15 -30668#16-AddedOnRampEdge -30668#16"/>
    <route id="!0BEtoDE.9" state="0" edges="-30668#0 -30668#0-AddedOffRampEdge -30668#1 -30668#2-AddedOnRampEdge -30668#2 -30668#2-AddedOffRampEdge -30668#3 -30668#4-AddedOnRampEdge -30668#4 -30668#4-AddedOffRampEdge -30668#5 -30668#6-AddedOnRampEdge -30668#6 -30668#6-AddedOffRampEdge -30668#7 -30668#7-AddedOffRampEdge -30668#8 -30668#9-AddedOnRampEdge -30668#9 -30668#9-AddedOffRampEdge -30668#10 -30668#10-AddedOffRampEdge -30668#11 -30668#12-AddedOnRampEdge -30668#12 -30668#12-AddedOffRampEdge -30668#13 -30668#14-AddedOnRampEdge -30668#14 -30668#14-AddedOffRampEdge -30668#15 -30668#16-AddedOnRampEdge -30668#16"/>
    <route id="!0BEtoFR.10" state="0" edges="-30668#0 -30668#0-AddedOffRampEdge -30668#1 -30668#2-AddedOnRampEdge -30668#2 -30668#2-AddedOffRampEdge -30668#3 -30668#4-AddedOnRampEdge -30668#4 -30668#4-AddedOffRampEdge -30668#5 -30668#6-AddedOnRampEdge -30668#6 -30668#6-AddedOffRampEdge -30440 -31366#0-AddedOnRampEdge -31366#0 -31366#1-AddedOnRampEdge -31366#1 -31366#1-AddedOffRampEdge -31366#2 -31366#3-AddedOnRampEdge -31366#3"/>
    <route id="!0BEtoFR.9" state="0" edges="-30668#0 -30668#0-AddedOffRampEdge -30668#1 -30668#2-AddedOnRampEdge -30668#2 -30668#2-AddedOffRampEdge -30668#3 -30668#4-AddedOnRampEdge -30668#4 -30668#4-AddedOffRampEdge -30668#5 -30668#6-AddedOnRampEdge -30668#6 -30668#6-AddedOffRampEdge -30440 -31366#0-AddedOnRampEdge -31366#0 -31366#1-AddedOnRampEdge -31366#1 -31366#1-AddedOffRampEdge -31366#2 -31366#3-AddedOnRampEdge -31366#3"/>
    <route id="!0BEtoLU.5" state="0" edges="-30668#0 -30668#0-AddedOffRampEdge -30668#1 -30668#2-AddedOnRampEdge -30668#2 -30668#2-AddedOffRampEdge -30668#3 -30668#4-AddedOnRampEdge -30668#4 -30668#4-AddedOffRampEdge -30668#5 -30668#6-AddedOnRampEdge -30668#6 -30668#6-AddedOffRampEdge -30668#7 -30668#7-AddedOffRampEdge -30668#8 -30668#9-AddedOnRampEdge -30668#9 -30668#9-AddedOffRampEdge -31432 -32400#5-AddedOnRampEdge -32400#5"/>
    <route id="!0BEtoLU.6" state="0" edges="-30668#0 -30668#0-AddedOffRampEdge -30668#1 -30668#2-AddedOnRampEdge -30668#2 -30668#2-AddedOffRampEdge -30668#3 -30668#4-AddedOnRampEdge -30668#4 -30668#4-AddedOffRampEdge -30668#5 -30668#6-AddedOnRampEdge -30668#6 -30668#6-AddedOffRampEdge -30668#7 -30668#7-AddedOffRampEdge -30668#8 -30668#9-AddedOnRampEdge -30668#9 -30668#9-AddedOffRampEdge -31432 -32400#5-AddedOnRampEdge -32400#5"/>
    <route id="!0BEtoLU.7" state="0" edges="-30668#0 -30668#0-AddedOffRampEdge -30668#1 -30668#2-AddedOnRampEdge -30668#2 -30668#2-AddedOffRampEdge -30668#3 -30668#4-AddedOnRampEdge -30668#4 -30668#4-AddedOffRampEdge -30668#5 -30668#6-AddedOnRampEdge -30668#6 -30668#6-AddedOffRampEdge -30668#7 -30668#7-AddedOffRampEdge -30668#8 -30668#9-AddedOnRampEdge -30668#9 -30668#9-AddedOffRampEdge -31432 -32400#5-AddedOnRampEdge -32400#5"/>
    <route id="!0BEtoLU.8" state="0" edges="-30668#0 -30668#0-AddedOffRampEdge -30668#1 -30668#2-AddedOnRampEdge -30668#2 -30668#2-AddedOffRampEdge -30668#3 -30668#4-AddedOnRampEdge -30668#4 -30668#4-AddedOffRampEdge -30668#5 -30668#6-AddedOnRampEdge -30668#6 -30668#6-AddedOffRampEdge -30668#7 -30668#7-AddedOffRampEdge -30668#8 -30668#9-AddedOnRampEdge -30668#9 -30668#9-AddedOffRampEdge -31432 -32400#5-AddedOnRampEdge -32400#5"/>
    <route id="!0BEtoLU.9" state="0" edges="-30668#0 -30668#0-AddedOffRampEdge -30668#1 -30668#2-AddedOnRampEdge -30668#2 -30668#2-AddedOffRampEdge -30668#3 -30668#4-AddedOnRampEdge -30668#4 -30668#4-AddedOffRampEdge -30668#5 -30668#6-AddedOnRampEdge -30668#6 -30668#6-AddedOffRampEdge -30668#7 -30668#7-AddedOffRampEdge -30668#8 -30668#9-AddedOnRampEdge -30668#9 -30668#9-AddedOffRampEdge -31432 -32400#5-AddedOnRampEdge -32400#5"/>
    <route id="!0DEtoBE.10" state="0" edges="-31622#0 -31622#0-AddedOffRampEdge -31622#1 -31622#2-AddedOnRampEdge -31622#2 -31622#2-AddedOffRampEdge -31622#3 -31622#4-AddedOnRampEdge -31622#4 -31622#4-AddedOffRampEdge -31622#5 -31622#5-AddedOffRampEdge -31622#6 -31622#7-AddedOnRampEdge -31622#7 -31622#7-AddedOffRampEdge -31622#8 -31622#8-AddedOffRampEdge -31622#9 -31622#10-AddedOnRampEdge -31622#10 -31622#10-AddedOffRampEdge -31622#11 -31622#12-AddedOnRampEdge -31622#12 -31622#12-AddedOffRampEdge -31622#13 -31622#14-AddedOnRampEdge -31622#14 -31622#14-AddedOffRampEdge -31622#15 -31622#16-AddedOnRampEdge -31622#16"/>
    <route id="!0DEtoBE.11" state="0" edges="-31622#0 -31622#0-AddedOffRampEdge -31622#1 -31622#2-AddedOnRampEdge -31622#2 -31622#2-AddedOffRampEdge -31622#3 -31622#4-AddedOnRampEdge -31622#4 -31622#4-AddedOffRampEdge -31622#5 -31622#5-AddedOffRampEdge -31622#6 -31622#7-AddedOnRampEdge -31622#7 -31622#7-AddedOffRampEdge -31622#8 -31622#8-AddedOffRampEdge -31622#9 -31622#10-AddedOnRampEdge -31622#10 -31622#10-AddedOffRampEdge -31622#11 -31622#12-AddedOnRampEdge -31622#12 -31622#12-AddedOffRampEdge -31622#13 -31622#14-AddedOnRampEdge -31622#14 -31622#14-AddedOffRampEdge -31622#15 -31622#16-AddedOnRampEdge -31622#16"/>
    <route id="!0DEtoBE.6" state="0" edges="-31622#0 -31622#0-AddedOffRampEdge -31622#1 -31622#2-AddedOnRampEdge -31622#2 -31622#2-AddedOffRampEdge -31622#3 -31622#4-AddedOnRampEdge -31622#4 -31622#4-AddedOffRampEdge -31622#5 -31622#5-AddedOffRampEdge -31622#6 -31622#7-AddedOnRampEdge -31622#7 -31622#7-AddedOffRampEdge -31622#8 -31622#8-AddedOffRampEdge -31622#9 -31622#10-AddedOnRampEdge -31622#10 -31622#10-AddedOffRampEdge -31622#11 -31622#12-AddedOnRampEdge -31622#12 -31622#12-AddedOffRampEdge -31622#13 -31622#14-AddedOnRampEdge -31622#14 -31622#14-AddedOffRampEdge -31622#15 -31622#16-AddedOnRampEdge -31622#16"/>
    <route id="!0DEtoBE.7" state="0" edges="-31622#0 -31622#0-AddedOffRampEdge -31622#1 -31622#2-AddedOnRampEdge -31622#2 -31622#2-AddedOffRampEdge -31622#3 -31622#4-AddedOnRampEdge -31622#4 -31622#4-AddedOffRampEdge -31622#5 -31622#5-AddedOffRampEdge -31622#6 -31622#7-AddedOnRampEdge -31622#7 -31622#7-AddedOffRampEdge -31622#8 -31622#8-AddedOffRampEdge -31622#9 -31622#10-AddedOnRampEdge -31622#10 -31622#10-AddedOffRampEdge -31622#11 -31622#12-AddedOnRampEdge -31622#12 -31622#12-AddedOffRampEdge -31622#13 -31622#14-AddedOnRampEdge -31622#14 -31622#14-AddedOffRampEdge -31622#15 -31622#16-AddedOnRampEdge -31622#16"/>
    <route id="!0DEtoBE.8" state="0" edges="-31622#0 -31622#0-AddedOffRampEdge -31622#1 -31622#2-AddedOnRampEdge -31622#2 -31622#2-AddedOffRampEdge -31622#3 -31622#4-AddedOnRampEdge -31622#4 -31622#4-AddedOffRampEdge -31622#5 -31622#5-AddedOffRampEdge -31622#6 -31622#7-AddedOnRampEdge -31622#7 -31622#7-AddedOffRampEdge -31622#8 -31622#8-AddedOffRampEdge -31622#9 -31622#10-AddedOnRampEdge -31622#10 -31622#10-AddedOffRampEdge -31622#11 -31622#12-AddedOnRampEdge -31622#12 -31622#12-AddedOffRampEdge -31622#13 -31622#14-AddedOnRampEdge -31622#14 -31622#14-AddedOffRampEdge -31622#15 -31622#16-AddedOnRampEdge -31622#16"/>
    <route id="!0DEtoBE.9" state="0" edges="-31622#0 -31622#0-AddedOffRampEdge -31622#1 -31622#2-AddedOnRampEdge -31622#2 -31622#2-AddedOffRampEdge -31622#3 -31622#4-AddedOnRampEdge -31622#4 -31622#4-AddedOffRampEdge -31622#5 -31622#5-AddedOffRampEdge -31622#6 -31622#7-AddedOnRampEdge -31622#7 -31622#7-AddedOffRampEdge -31622#8 -31622#8-AddedOffRampEdge -31622#9 -31622#10-AddedOnRampEdge -31622#10 -31622#10-AddedOffRampEdge -31622#11 -31622#12-AddedOnRampEdge -31622#12 -31622#12-AddedOffRampEdge -31622#13 -31622#14-AddedOnRampEdge -31622#14 -31622#14-AddedOffRampEdge -31622#15 -31622#16-AddedOnRampEdge -31622#16"/>
    <route id="!0DEtoFR.11" state="0" edges="-31622#0 -31622#0-AddedOffRampEdge -31622#1 -31622#2-AddedOnRampEdge -31622#2 -31622#2-AddedOffRampEdge -31622#3 -31622#4-AddedOnRampEdge -31622#4 -31622#4-AddedOffRampEdge -31622#5 -31622#5-AddedOffRampEdge -31622#6 -31622#7-AddedOnRampEdge -31622#7 -31622#7-AddedOffRampEdge -31622#8 -31622#8-AddedOffRampEdge -30482 -31366#1-AddedOnRampEdge -31366#1 -31366#1-AddedOffRampEdge -31366#2 -31366#3-AddedOnRampEdge -31366#3"/>
    <route id="!0DEtoFR.12" state="0" edges="-31622#0 -31622#0-AddedOffRampEdge -31622#1 -31622#2-AddedOnRampEdge -31622#2 -31622#2-AddedOffRampEdge -31622#3 -31622#4-AddedOnRampEdge -31622#4 -31622#4-AddedOffRampEdge -31622#5 -31622#5-AddedOffRampEdge -31622#6 -31622#7-AddedOnRampEdge -31622#7 -31622#7-AddedOffRampEdge -31622#8 -31622#8-AddedOffRampEdge -30482 -31366#1-AddedOnRampEdge -31366#1 -31366#1-AddedOffRampEdge -31366#2 -31366#3-AddedOnRampEdge -31366#3"/>
    <route id="!0DEtoFR.13" state="0" edges="-31622#0 -31622#0-AddedOffRampEdge -31622#1 -31622#2-AddedOnRampEdge -31622#2 -31622#2-AddedOffRampEdge -31622#3 -31622#4-AddedOnRampEdge -31622#4 -31622#4-AddedOffRampEdge -31622#5 -31622#5-AddedOffRampEdge -31622#6 -31622#7-AddedOnRampEdge -31622#7 -31622#7-AddedOffRampEdge -31622#8 -31622#8-AddedOffRampEdge -30482 -31366#1-AddedOnRampEdge -31366#1 -31366#1-AddedOffRampEdge -31366#2 -31366#3-AddedOnRampEdge -31366#3"/>
    <route id="!0DEtoFR.9" state="0" edges="-31622#0 -31622#0-AddedOffRampEdge -31622#1 -31622#2-AddedOnRampEdge -31622#2 -31622#2-AddedOffRampEdge -31622#3 -31622#4-AddedOnRampEdge -31622#4 -31622#4-AddedOffRampEdge -31622#5 -31622#5-AddedOffRampEdge -31622#6 -31622#7-AddedOnRampEdge -31622#7 -31622#7-AddedOffRampEdge -31622#8 -31622#8-AddedOffRampEdge -30482 -31366#1-AddedOnRampEdge -31366#1 -31366#1-AddedOffRampEdge -31366#2 -31366#3-AddedOnRampEdge -31366#3"/>
    <route id="!0DEtoLU.7" state="0" edges="-31622#0 -31622#0-AddedOffRampEdge -31622#1 -31622#2-AddedOnRampEdge -31622#2 -31622#2-AddedOffRampEdge -31622#3 -31622#4-AddedOnRampEdge -31622#4 -31622#4-AddedOffRampEdge -31828 -32400#4-AddedOnRampEdge -32400#4 -32400#5-AddedOnRampEdge -32400#5"/>
    <route id="!0DEtoLU.8" state="0" edges="-31622#0 -31622#0-AddedOffRampEdge -31622#1 -31622#2-AddedOnRampEdge -31622#2 -31622#2-AddedOffRampEdge -31622#3 -31622#4-AddedOnRampEdge -31622#4 -31622#4-AddedOffRampEdge -31828 -32400#4-AddedOnRampEdge -32400#4 -32400#5-AddedOnRampEdge -32400#5"/>
    <route id="!0FRtoBE.6" state="0" edges="-32426#0 -32426#0-AddedOffRampEdge -32426#1 -32426#2-AddedOnRampEdge -32426#2 -32426#2-AddedOffRampEdge -31052 -32554 -32372#2 -31622#10-AddedOnRampEdge -31622#10 -31622#10-AddedOffRampEdge -31622#11 -31622#12-AddedOnRampEdge -31622#12 -31622#12-AddedOffRampEdge -31622#13 -31622#14-AddedOnRampEdge -31622#14 -31622#14-AddedOffRampEdge -31622#15 -31622#16-AddedOnRampEdge -31622#16"/>
    <route id="!0FRtoBE.7" state="0" edges="-32426#0 -32426#0-AddedOffRampEdge -32426#1 -32426#2-AddedOnRampEdge -32426#2 -32426#2-AddedOffRampEdge -31052 -32554 -32372#2 -31622#10-AddedOnRampEdge -31622#10 -31622#10-AddedOffRampEdge -31622#11 -31622#12-AddedOnRampEdge -31622#12 -31622#12-AddedOffRampEdge -31622#13 -31622#14-AddedOnRampEdge -31622#14 -31622#14-AddedOffRampEdge -31622#15 -31622#16-AddedOnRampEdge -31622#16"/>
    <route id="!0FRtoBE.8" state="0" edges="-32426#0 -32426#0-AddedOffRampEdge -32426#1 -32426#2-AddedOnRampEdge -32426#2 -32426#2-AddedOffRampEdge -31052 -32554 -32372#2 -31622#10-AddedOnRampEdge -31622#10 -31622#10-AddedOffRampEdge -31622#11 -31622#12-AddedOnRampEdge -31622#12 -31622#12-AddedOffRampEdge -31622#13 -31622#14-AddedOnRampEdge -31622#14 -31622#14-AddedOffRampEdge -31622#15 -31622#16-AddedOnRampEdge -31622#16"/>
    <route id="!0FRtoDE.10" state="0" edges="-32426#0 -32426#0-AddedOffRampEdge -32426#1 -32426#2-AddedOnRampEdge -32426#2 -32426#2-AddedOffRampEdge -31052 -30692 -31156#1 -30668#9-AddedOnRampEdge -30668#9 -30668#9-AddedOffRampEdge -30668#10 -30668#10-AddedOffRampEdge -30668#11 -30668#12-AddedOnRampEdge -30668#12 -30668#12-AddedOffRampEdge -30668#13 -30668#14-AddedOnRampEdge -30668#14 -30668#14-AddedOffRampEdge -30668#15 -30668#16-AddedOnRampEdge -30668#16"/>
    <route id="!0FRtoDE.4" state="0" edges="-32426#0 -32426#0-AddedOffRampEdge -32426#1 -32426#2-AddedOnRampEdge -32426#2 -32426#2-AddedOffRampEdge -31052 -30692 -31156#1 -30668#9-AddedOnRampEdge -30668#9 -30668#9-AddedOffRampEdge -30668#10 -30668#10-AddedOffRampEdge -30668#11 -30668#12-AddedOnRampEdge -30668#12 -30668#12-AddedOffRampEdge -30668#13 -30668#14-AddedOnRampEdge -30668#14 -30668#14-AddedOffRampEdge -30668#15 -30668#16-AddedOnRampEdge -30668#16"/>
    <route id="!0FRtoDE.5" state="0" edges="-32426#0 -32426#0-AddedOffRampEdge -32426#1 -32426#2-AddedOnRampEdge -32426#2 -32426#2-AddedOffRampEdge -31052 -30692 -31156#1 -30668#9-AddedOnRampEdge -30668#9 -30668#9-AddedOffRampEdge -30668#10 -30668#10-AddedOffRampEdge -30668#11 -30668#12-AddedOnRampEdge -30668#12 -30668#12-AddedOffRampEdge -30668#13 -30668#14-AddedOnRampEdge -30668#14 -30668#14-AddedOffRampEdge -30668#15 -30668#16-AddedOnRampEdge -30668#16"/>
    <route id="!0FRtoDE.6" state="0" edges="-32426#0 -32426#0-AddedOffRampEdge -32426#1 -32426#2-AddedOnRampEdge -32426#2 -32426#2-AddedOffRampEdge -31052 -30692 -31156#1 -30668#9-AddedOnRampEdge -30668#9 -30668#9-AddedOffRampEdge -30668#10 -30668#10-AddedOffRampEdge -30668#11 -30668#12-AddedOnRampEdge -30668#12 -30668#12-AddedOffRampEdge -30668#13 -30668#14-AddedOnRampEdge -30668#14 -30668#14-AddedOffRampEdge -30668#15 -30668#16-AddedOnRampEdge -30668#16"/>
    <route id="!0FRtoDE.7" state="0" edges="-32426#0 -32426#0-AddedOffRampEdge -32426#1 -32426#2-AddedOnRampEdge -32426#2 -32426#2-AddedOffRampEdge -31052 -30692 -31156#1 -30668#9-AddedOnRampEdge -30668#9 -30668#9-AddedOffRampEdge -30668#10 -30668#10-AddedOffRampEdge -30668#11 -30668#12-AddedOnRampEdge -30668#12 -30668#12-AddedOffRampEdge -30668#13 -30668#14-AddedOnRampEdge -30668#14 -30668#14-AddedOffRampEdge -30668#15 -30668#16-AddedOnRampEdge -30668#16"/>
    <route id="!0FRtoDE.8" state="0" edges="-32426#0 -32426#0-AddedOffRampEdge -32426#1 -32426#2-AddedOnRampEdge -32426#2 -32426#2-AddedOffRampEdge -31052 -30692 -31156#1 -30668#9-AddedOnRampEdge -30668#9 -30668#9-AddedOffRampEdge -30668#10 -30668#10-AddedOffRampEdge -30668#11 -30668#12-AddedOnRampEdge -30668#12 -30668#12-AddedOffRampEdge -30668#13 -30668#14-AddedOnRampEdge -30668#14 -30668#14-AddedOffRampEdge -30668#15 -30668#16-AddedOnRampEdge -30668#16"/>
    <route id="!0FRtoDE.9" state="0" edges="-32426#0 -32426#0-AddedOffRampEdge -32426#1 -32426#2-AddedOnRampEdge -32426#2 -32426#2-AddedOffRampEdge -31052 -30692 -31156#1 -30668#9-AddedOnRampEdge -30668#9 -30668#9-AddedOffRampEdge -30668#10 -30668#10-AddedOffRampEdge -30668#11 -30668#12-AddedOnRampEdge -30668#12 -30668#12-AddedOffRampEdge -30668#13 -30668#14-AddedOnRampEdge -30668#14 -30668#14-AddedOffRampEdge -30668#15 -30668#16-AddedOnRampEdge -30668#16"/>
    <route id="!0FRtoLU.13" state="0" edges="-32426#0 -32426#0-AddedOffRampEdge -32426#1 -32426#2-AddedOnRampEdge -32426#2 -32426#2-AddedOffRampEdge -31052 -30692 -31156#1 -30668#9-AddedOnRampEdge -30668#9 -30668#9-AddedOffRampEdge -31432 -32400#5-AddedOnRampEdge -32400#5"/>
    <route id="!0FRtoLU.14" state="0" edges="-32426#0 -32426#0-AddedOffRampEdge -32426#1 -32426#2-AddedOnRampEdge -32426#2 -32426#2-AddedOffRampEdge -31052 -30692 -31156#1 -30668#9-AddedOnRampEdge -30668#9 -30668#9-AddedOffRampEdge -31432 -32400#5-AddedOnRampEdge -32400#5"/>
    <route id="!0FRtoLU.15" state="0" edges="-32426#0 -32426#0-AddedOffRampEdge -32426#1 -32426#2-AddedOnRampEdge -32426#2 -32426#2-AddedOffRampEdge -31052 -30692 -31156#1 -30668#9-AddedOnRampEdge -30668#9 -30668#9-AddedOffRampEdge -31432 -32400#5-AddedOnRampEdge -32400#5"/>
    <route id="!0FRtoLU.16" state="0" edges="-32426#0 -32426#0-AddedOffRampEdge -32426#1 -32426#2-AddedOnRampEdge -32426#2 -32426#2-AddedOffRampEdge -31052 -30692 -31156#1 -30668#9-AddedOnRampEdge -30668#9 -30668#9-AddedOffRampEdge -31432 -32400#5-AddedOnRampEdge -32400#5"/>
    <route id="!0FRtoLU.17" state="0" edges="-32426#0 -32426#0-AddedOffRampEdge -32426#1 -32426#2-AddedOnRampEdge -32426#2 -32426#2-AddedOffRampEdge -31052 -30692 -31156#1 -30668#9-AddedOnRampEdge -30668#9 -30668#9-AddedOffRampEdge -31432 -32400#5-AddedOnRampEdge -32400#5"/>
    <route id="!0FRtoLU.18" state="0" edges="-32426#0 -32426#0-AddedOffRampEdge -32426#1 -32426#2-AddedOnRampEdge -32426#2 -32426#2-AddedOffRampEdge -31052 -30692 -31156#1 -30668#9-AddedOnRampEdge -30668#9 -30668#9-AddedOffRampEdge -31432 -32400#5-AddedOnRampEdge -32400#5"/>
    <route id="!0FRtoLU.19" state="0" edges="-32426#0 -32426#0-AddedOffRampEdge -32426#1 -32426#2-AddedOnRampEdge -32426#2 -32426#2-AddedOffRampEdge -31052 -30692 -31156#1 -30668#9-AddedOnRampEdge -30668#9 -30668#9-AddedOffRampEdge -31432 -32400#5-AddedOnRampEdge -32400#5"/>
    <route id="!0LUtoBE.5" state="0" edges="-30706#0 -30706#0-AddedOffRampEdge -31268#0 -31840#0 -31840#1 -31622#7-AddedOnRampEdge -31622#7 -31622#7-AddedOffRampEdge -31622#8 -31622#8-AddedOffRampEdge -31622#9 -31622#10-AddedOnRampEdge -31622#10 -31622#10-AddedOffRampEdge -31622#11 -31622#12-AddedOnRampEdge -31622#12 -31622#12-AddedOffRampEdge -31622#13 -31622#14-AddedOnRampEdge -31622#14 -31622#14-AddedOffRampEdge -31622#15 -31622#16-AddedOnRampEdge -31622#16"/>
    <route id="!0LUtoBE.6" state="0" edges="-30706#0 -30706#0-AddedOffRampEdge -31268#0 -31840#0 -31840#1 -31622#7-AddedOnRampEdge -31622#7 -31622#7-AddedOffRampEdge -31622#8 -31622#8-AddedOffRampEdge -31622#9 -31622#10-AddedOnRampEdge -31622#10 -31622#10-AddedOffRampEdge -31622#11 -31622#12-AddedOnRampEdge -31622#12 -31622#12-AddedOffRampEdge -31622#13 -31622#14-AddedOnRampEdge -31622#14 -31622#14-AddedOffRampEdge -31622#15 -31622#16-AddedOnRampEdge -31622#16"/>
    <route id="!0LUtoDE.5" state="0" edges="-30706#0 -30706#0-AddedOffRampEdge -31268#0 -31268#1 -31268#2 -30668#12-AddedOnRampEdge -30668#12 -30668#12-AddedOffRampEdge -30668#13 -30668#14-AddedOnRampEdge -30668#14 -30668#14-AddedOffRampEdge -30668#15 -30668#16-AddedOnRampEdge -30668#16"/>
    <route id="!0LUtoDE.6" state="0" edges="-30706#0 -30706#0-AddedOffRampEdge -31268#0 -31268#1 -31268#2 -30668#12-AddedOnRampEdge -30668#12 -30668#12-AddedOffRampEdge -30668#13 -30668#14-AddedOnRampEdge -30668#14 -30668#14-AddedOffRampEdge -30668#15 -30668#16-AddedOnRampEdge -30668#16"/>
    <route id="!0LUtoDE.7" state="0" edges="-30706#0 -30706#0-AddedOffRampEdge -31268#0 -31268#1 -31268#2 -30668#12-AddedOnRampEdge -30668#12 -30668#12-AddedOffRampEdge -30668#13 -30668#14-AddedOnRampEdge -30668#14 -30668#14-AddedOffRampEdge -30668#15 -30668#16-AddedOnRampEdge -30668#16"/>
    <route id="!0LUtoDE.8" state="0" edges="-30706#0 -30706#0-AddedOffRampEdge -31268#0 -31268#1 -31268#2 -30668#12-AddedOnRampEdge -30668#12 -30668#12-AddedOffRampEdge -30668#13 -30668#14-AddedOnRampEdge -30668#14 -30668#14-AddedOffRampEdge -30668#15 -30668#16-AddedOnRampEdge -30668#16"/>
    <route id="!0LUtoDE.9" state="0" edges="-30706#0 -30706#0-AddedOffRampEdge -31268#0 -31268#1 -31268#2 -30668#12-AddedOnRampEdge -30668#12 -30668#12-AddedOffRampEdge -30668#13 -30668#14-AddedOnRampEdge -30668#14 -30668#14-AddedOffRampEdge -30668#15 -30668#16-AddedOnRampEdge -30668#16"/>
    <route id="!0LUtoFR.6" state="0" edges="-30706#0 -30706#0-AddedOffRampEdge -31268#0 -31840#0 -31840#1 -31622#7-AddedOnRampEdge -31622#7 -31622#7-AddedOffRampEdge -31622#8 -31622#8-AddedOffRampEdge -30482 -31366#1-AddedOnRampEdge -31366#1 -31366#1-AddedOffRampEdge -31366#2 -31366#3-AddedOnRampEdge -31366#3"/>
    <route id="!0LUtoFR.7" state="0" edges="-30706#0 -30706#0-AddedOffRampEdge -31268#0 -31840#0 -31840#1 -31622#7-AddedOnRampEdge -31622#7 -31622#7-AddedOffRampEdge -31622#8 -31622#8-AddedOffRampEdge -30482 -31366#1-AddedOnRampEdge -31366#1 -31366#1-AddedOffRampEdge -31366#2 -31366#3-AddedOnRampEdge -31366#3"/>
    <route id="!AVL---_CN_1_0" state="0" edges="--31272#8 --31272#7 -30892#17 -31320#1 -31320#2 --31272#4 --31272#3 --31272#2 --31272#1 --31272#0 --30528#20 --30528#19 --30528#18 --30528#17 --30528#16 --30528#15 --30528#14 --30528#13 --30528#12 --30528#11 --30528#10 --30528#9 --30528#8 --30528#7 --30528#6 --30528#5 -31648#0 -31648#1 -31648#2 --32672 -31068#0 -31068#1 -32574 -30338 --32652#9 --30796 -31208#1 --31056#0 -31780 --31068#1 --31068#0 -32672 -31648#3 -31648#4 -31648#5 --32674#9 --32674#8 --32674#7 --32674#6 --32674#5 --32674#4 --32674#3 --32674#2 --31134#1 --31134#0 --30856#15 --30856#14 --30856#13 --30856#12 --30856#11 --30856#10 --30856#9 --30856#8 --30856#7 --30856#6 --30856#5 --30856#4 --30856#3 --30856#2 --30856#1 --30856#0 -32674#7 -32674#8 -32674#9 --31492#2 -30528#0 -30528#1 -30528#2 -30528#3 -30812 --31648#1 --31648#0 -30528#5 -30528#6 --32924#4 --32924#3 --32924#2 --32924#1 --32924#0 --32410#3 --32410#2 --32410#1 --32410#0 -30528#16"/>
    <route id="!AVL---_CN_1_1" state="0" edges="--30528#16 -32410#0 -32410#1 -32410#2 -32410#3 -32924#0 -32924#1 -32924#2 -32924#3 -32924#4 --30528#6 --30528#5 -31648#0 -31648#1 --30812 --30528#3 --30528#2 --30528#1 --30528#0 -31492#2 --32674#9 --32674#8 --32674#7 -30856#0 -30856#1 -30856#2 -30856#3 -30856#4 -30856#5 -30856#6 -30856#7 -30856#8 -30856#9 -30856#10 -30856#11 -30856#12 -30856#13 -30856#14 -30856#15 -31134#0 -31134#1 -32674#2 -32674#3 -32674#4 -32674#5 -32674#6 -32674#7 -32674#8 -32674#9 --31648#5 --31648#4 --31648#3 --32672 -31068#0 -31068#1 -32574 -30338 -31056#0 --31208#1 -30796 -32652#9 -31780 --31068#1 --31068#0 -32672 --31648#2 --31648#1 --31648#0 -30528#5 -30528#6 -30528#7 -30528#8 -30528#9 -30528#10 -30528#11 -30528#12 -30528#13 -30528#14 -30528#15 -30528#16 -30528#17 -30528#18 -30528#19 -30528#20 -31272#0 -31272#1 -31272#2 -31272#3 -31272#4 -31272#5 -31272#6 -31272#7 -31272#8"/>
    <route id="!AVL---_CN_2_0" state="0" edges="-31496#9 -31496#10 -31496#11 -31496#12 -31496#13 -31496#14 -32750#0 -32750#1 -32750#2 -32750#3 -32750#4 -32750#5 -32750#6 -32750#7 -32750#8 -32750#9 -32750#10 -32750#11 -32750#12 -31648#0 -31648#1 -31648#2 --32672 -31068#0 -31068#1 -32574 -31330 -32500 -32868 -30710#0 -30710#1 -30710#2 --32002 -31274#0 -31274#1 -30928 --30646#8 --30646#7 --30646#6 --30646#5 --30646#4 --30646#3 --30646#2 --30646#1 -31056#2 -31056#3 -30962#1 -30962#2 -30256#0 --31812 -30582#0 -30582#1 --31152#1 --31152#0 -32160#1 -32160#2 -32160#3 --31992#5 --31992#4 --31992#3 --31992#2 --31992#1"/>
    <route id="!AVL---_CN_2_1" state="0" edges="-31992#1 -31992#2 -31992#3 -31992#4 -31992#5 --32160#3 --32160#2 --32160#1 -31152#0 -31152#1 -30582#2 -31812 --30256#0 -30724#0 -32486#0 -32486#1 --31056#2 -30646#1 -30646#2 -30646#3 -30646#4 -30646#5 -30646#6 -30646#7 -30646#8 --30928 --31274#1 --31274#0 -32002 -31478#0 -31478#1 --30860#5 --30860#4 --30860#3 --30860#2 --31752 --31330 -30338 -31780 --31068#1 --31068#0 -32672 --31648#2 --31648#1 --31648#0 --32750#12 --32750#11 --32750#10 --32750#9 --32750#8 --32750#7 --32750#6 --32750#5 --32750#4 --32750#3 --32750#2 --32750#1 --32750#0 --31496#14 --31496#13 --31496#12 --31496#11 --31496#10 --31496#9"/>
    <route id="!AVL---_CN_3_0" state="0" edges="-31340#2 -31340#3 -31340#4 --31066#0 -32914#1 --30348#5 --30348#4 --30348#3 --30348#2 --30348#1 --30348#0 -30892#24 -30892#25 -32558 -32730#0 --31772#1 --31772#0 -31966#5 -31966#6 -31966#7 -31966#8 -31966#9 -31966#10 -31966#11 -31966#12 -31966#13 --31066#8 --30892#21 --30892#20 --30892#19 --30892#18 --30892#17 --30892#16 --30892#15 --30892#14 --30892#13 --30892#12 --30892#11 --30892#10 --30892#9 --30892#8 --30892#7 --30892#6 -32750#10 -32750#11 -32750#12 --30528#4 -30812 --31648#1 --31648#0 -30528#5 -30528#6 -30528#7 -30528#8 -30528#9 -30528#10 -30528#11 -30528#12 -30528#13 -32850 -31890 --32964#11 --32964#10 --32964#9 --32964#8 --32964#7 --32964#6 --32964#5 --32964#4 --32964#3 --32964#2 --32964#1 --32964#0 --31818#20 --31818#19 --31818#18 --31818#17 --31818#16 --31818#15 --32638#11 --32638#10 --32638#9 --32638#8 --32638#7 --32638#6 --32638#5 --32638#4 --32638#3 --32638#2 --32638#1 --32638#0"/>