<?xml version="1.0" encoding="UTF-8"?>

<!-- generated on 2022-04-21 21:37:54 by Eclipse SUMO GUI Version 1.12.0
<configuration xmlns:xsi="http://www.w3.org/2001/XMLSchema-instance" xsi:noNamespaceSchemaLocation="http://sumo.dlr.de/xsd/sumoConfiguration.xsd">

    <input>
        <net-file value="lust.net.xml"/>
        <route-files value="buslines.rou.xml,DUERoutes/local.static.0.rou.xml,DUERoutes/local.static.1.rou.xml,DUERoutes/local.static.2.rou.xml,transit.rou.xml"/>
        <additional-files value="vtypes.add.xml,busstops.add.xml,e1detectors.add.xml,lust.poly.xml,tll.static.xml"/>
    </input>

    <output>
        <summary-output value="due.static.summary.xml"/>
        <tripinfo-output value="due.static.tripinfo.xml"/>
    </output>

    <time>
        <begin value="0"/>
        <step-length value="1"/>
    </time>

    <processing>
        <ignore-junction-blocker value="20"/>
        <time-to-teleport value="600"/>
        <max-depart-delay value="600"/>
    </processing>

    <routing>
        <routing-algorithm value="dijkstra"/>
    </routing>

    <report>
        <verbose value="true"/>
        <log value="due.static.log"/>
    </report>

    <gui_only>
        <tracker-interval value="1"/>
    </gui_only>

</configuration>
-->

<tripinfos xmlns:xsi="http://www.w3.org/2001/XMLSchema-instance" xsi:noNamespaceSchemaLocation="http://sumo.dlr.de/xsd/tripinfo_file.xsd">
    <tripinfo id="randUni834:1" depart="5.00" departLane="--32406#3_0" departPos="44.28" departSpeed="0.00" departDelay="0.00" arrival="43.00" arrivalLane="--31212_0" arrivalPos="134.87" arrivalSpeed="0.19" duration="38.00" routeLength="419.00" waitingTime="0.00" waitingCount="0" stopTime="0.00" timeLoss="8.15" rerouteNo="0" devices="tripinfo_randUni834:1" vType="passenger2b" speedFactor="1.01" vaporized=""/>
    <tripinfo id="randUni16882:1" depart="14.00" departLane="-32340#7_0" departPos="8.34" departSpeed="0.00" departDelay="0.00" arrival="120.00" arrivalLane="-32660_0" arrivalPos="41.64" arrivalSpeed="0.20" duration="106.00" routeLength="1285.61" waitingTime="0.00" waitingCount="0" stopTime="0.00" timeLoss="14.38" rerouteNo="0" devices="tripinfo_randUni16882:1" vType="passenger1" speedFactor="1.01" vaporized=""/>
    <tripinfo id="randUni11317:1" depart="11.00" departLane="--31490_0" departPos="79.31" departSpeed="0.00" departDelay="0.00" arrival="137.00" arrivalLane="-31290#1_0" arrivalPos="2.17" arrivalSpeed="0.12" duration="126.00" routeLength="1697.02" waitingTime="0.00" waitingCount="0" stopTime="0.00" timeLoss="22.77" rerouteNo="0" devices="tripinfo_randUni11317:1" vType="passenger2a" speedFactor="1.16" vaporized=""/>
    <tripinfo id="NBSKMS_Nightbus_0" depart="39.00" departLane="-32278#1_0" departPos="0.00" departSpeed="0.00" departDelay="0.00" arrival="275.00" arrivalLane="-32278#5_0" arrivalPos="841.44" arrivalSpeed="13.63" duration="236.00" routeLength="1905.19" waitingTime="10.00" waitingCount="1" stopTime="60.00" timeLoss="44.70" rerouteNo="0" devices="tripinfo_NBSKMS_Nightbus_0" vType="bus" speedFactor="1.05" vaporized=""/>
    <tripinfo id="0FRtoLU.0" depart="42.00" departLane="-32426#0_0" departPos="5.10" departSpeed="13.89" departDelay="0.00" arrival="288.00" arrivalLane="-32400#5_0" arrivalPos="257.03" arrivalSpeed="37.63" duration="246.00" routeLength="6507.94" waitingTime="0.00" waitingCount="0" stopTime="0.00" timeLoss="15.15" rerouteNo="0" devices="tripinfo_0FRtoLU.0" vType="passenger1" speedFactor="1.04" vaporized=""/>
    <tripinfo id="NBSKMS_Nightbus_1" depart="39.00" departLane="--32278#5_0" departPos="0.00" departSpeed="0.00" departDelay="0.00" arrival="309.00" arrivalLane="--32278#1_0" arrivalPos="139.07" arrivalSpeed="14.33" duration="270.00" routeLength="1910.02" waitingTime="47.00" waitingCount="2" stopTime="60.00" timeLoss="86.83" rerouteNo="0" devices="tripinfo_NBSKMS_Nightbus_1" vType="bus" speedFactor="1.12" vaporized=""/>
    <tripinfo id="randUni13606:1" depart="27.00" departLane="--32244_0" departPos="186.38" departSpeed="0.00" departDelay="0.00" arrival="337.00" arrivalLane="-31068#1_0" arrivalPos="189.33" arrivalSpeed="0.26" duration="310.00" routeLength="2732.85" waitingTime="60.00" waitingCount="3" stopTime="0.00" timeLoss="95.19" rerouteNo="0" devices="tripinfo_randUni13606:1" vType="passenger4" speedFactor="0.89" vaporized=""/>
    <tripinfo id="0FRtoLU.1" depart="63.00" departLane="-32426#0_0" departPos="5.10" departSpeed="13.89" departDelay="0.00" arrival="345.00" arrivalLane="-32400#5_0" arrivalPos="257.03" arrivalSpeed="32.46" duration="282.00" routeLength="6507.94" waitingTime="0.00" waitingCount="0" stopTime="0.00" timeLoss="14.78" rerouteNo="0" devices="tripinfo_0FRtoLU.1" vType="passenger1" speedFactor="0.90" vaporized=""/>
    <tripinfo id="0FRtoLU.2" depart="119.00" departLane="-32426#0_0" departPos="6.10" departSpeed="13.89" departDelay="0.00" arrival="346.00" arrivalLane="-32400#5_0" arrivalPos="257.03" arrivalSpeed="34.99" duration="227.00" routeLength="6506.94" waitingTime="0.00" waitingCount="0" stopTime="0.00" timeLoss="21.27" rerouteNo="0" devices="tripinfo_0FRtoLU.2" vType="passenger3" speedFactor="1.17" vaporized=""/>
    <tripinfo id="randUni3742:1" depart="283.00" departLane="--32124#1_0" departPos="23.79" departSpeed="0.00" departDelay="0.00" arrival="367.00" arrivalLane="--31894#2_0" arrivalPos="15.94" arrivalSpeed="0.18" duration="84.00" routeLength="468.09" waitingTime="36.00" waitingCount="1" stopTime="0.00" timeLoss="49.55" rerouteNo="0" devices="tripinfo_randUni3742:1" vType="passenger2a" speedFactor="0.94" vaporized=""/>
    <tripinfo id="0DEtoLU.0" depart="15.00" departLane="-31622#0_0" departPos="4.60" departSpeed="13.89" departDelay="0.00" arrival="370.00" arrivalLane="-32400#5_1" arrivalPos="257.03" arrivalSpeed="37.15" duration="355.00" routeLength="11354.22" waitingTime="0.00" waitingCount="0" stopTime="0.00" timeLoss="14.45" rerouteNo="0" devices="tripinfo_0DEtoLU.0" vType="passenger2a" speedFactor="1.04" vaporized=""/>
    <tripinfo id="0LUtoDE.0" depart="45.00" departLane="-30706#0_0" departPos="5.10" departSpeed="13.89" departDelay="0.00" arrival="380.00" arrivalLane="-30668#16_1" arrivalPos="272.49" arrivalSpeed="34.86" duration="335.00" routeLength="10511.80" waitingTime="0.00" waitingCount="0" stopTime="0.00" timeLoss="12.89" rerouteNo="0" devices="tripinfo_0LUtoDE.0" vType="passenger1" speedFactor="1.00" vaporized=""/>
    <tripinfo id="0DEtoLU.1" depart="43.00" departLane="-31622#0_0" departPos="6.10" departSpeed="13.89" departDelay="0.00" arrival="381.00" arrivalLane="-32400#5_1" arrivalPos="257.03" arrivalSpeed="38.34" duration="338.00" routeLength="11352.72" waitingTime="0.00" waitingCount="0" stopTime="0.00" timeLoss="13.48" rerouteNo="0" devices="tripinfo_0DEtoLU.1" vType="passenger3" speedFactor="1.09" vaporized=""/>
    <tripinfo id="0FRtoLU.3" depart="129.00" departLane="-32426#0_0" departPos="5.10" departSpeed="13.89" departDelay="0.00" arrival="385.00" arrivalLane="-32400#5_0" arrivalPos="257.03" arrivalSpeed="35.28" duration="256.00" routeLength="6507.94" waitingTime="0.00" waitingCount="0" stopTime="0.00" timeLoss="16.28" rerouteNo="0" devices="tripinfo_0FRtoLU.3" vType="passenger1" speedFactor="1.00" vaporized=""/>
    <tripinfo id="0BEtoFR.1" depart="145.00" departLane="-30668#0_0" departPos="4.60" departSpeed="13.89" departDelay="0.00" arrival="400.00" arrivalLane="-31366#3_1" arrivalPos="20.69" arrivalSpeed="40.82" duration="255.00" routeLength="9435.52" waitingTime="0.00" waitingCount="0" stopTime="0.00" timeLoss="10.96" rerouteNo="0" devices="tripinfo_0BEtoFR.1" vType="passenger2a" speedFactor="1.14" vaporized=""/>
    <tripinfo id="randUni18368:1" depart="0.00" departLane="-31606#0_0" departPos="177.47" departSpeed="0.00" departDelay="0.00" arrival="403.00" arrivalLane="-30496#4_1" arrivalPos="97.49" arrivalSpeed="0.21" duration="403.00" routeLength="3168.72" waitingTime="127.00" waitingCount="4" stopTime="0.00" timeLoss="164.11" rerouteNo="0" devices="tripinfo_randUni18368:1" vType="passenger2a" speedFactor="0.94" vaporized=""/>
    <tripinfo id="randUni19500:1" depart="198.00" departLane="-31230#5_0" departPos="110.20" departSpeed="0.00" departDelay="0.00" arrival="413.00" arrivalLane="--30968#1_0" arrivalPos="87.47" arrivalSpeed="0.09" duration="215.00" routeLength="2376.37" waitingTime="23.00" waitingCount="3" stopTime="0.00" timeLoss="60.13" rerouteNo="0" devices="tripinfo_randUni19500:1" vType="passenger2b" speedFactor="1.10" vaporized=""/>
    <tripinfo id="randUni10908:1" depart="127.00" departLane="-31302_0" departPos="12.14" departSpeed="0.00" departDelay="0.00" arrival="418.00" arrivalLane="--32160#3_0" arrivalPos="34.56" arrivalSpeed="0.12" duration="291.00" routeLength="3138.89" waitingTime="46.00" waitingCount="3" stopTime="0.00" timeLoss="98.15" rerouteNo="0" devices="tripinfo_randUni10908:1" vType="passenger2b" speedFactor="1.17" vaporized=""/>
    <tripinfo id="0LUtoBE.0" depart="12.00" departLane="-30706#0_0" departPos="4.60" departSpeed="13.89" departDelay="0.00" arrival="418.00" arrivalLane="-31622#16_1" arrivalPos="305.81" arrivalSpeed="33.15" duration="406.00" routeLength="11318.23" waitingTime="0.00" waitingCount="0" stopTime="0.00" timeLoss="19.37" rerouteNo="0" devices="tripinfo_0LUtoBE.0" vType="passenger2a" speedFactor="0.96" vaporized=""/>
    <tripinfo id="0LUtoDE.1" depart="122.00" departLane="-30706#0_0" departPos="4.60" departSpeed="13.89" departDelay="0.00" arrival="428.00" arrivalLane="-30668#16_1" arrivalPos="272.49" arrivalSpeed="38.22" duration="306.00" routeLength="10512.30" waitingTime="0.00" waitingCount="0" stopTime="0.00" timeLoss="12.32" rerouteNo="0" devices="tripinfo_0LUtoDE.1" vType="passenger2b" speedFactor="1.10" vaporized=""/>
    <tripinfo id="randUni8397:1" depart="348.00" departLane="--30528#29_0" departPos="19.43" departSpeed="0.00" departDelay="0.00" arrival="432.00" arrivalLane="--30778#0_0" arrivalPos="16.16" arrivalSpeed="0.34" duration="84.00" routeLength="922.79" waitingTime="0.00" waitingCount="0" stopTime="0.00" timeLoss="18.05" rerouteNo="0" devices="tripinfo_randUni8397:1" vType="passenger1" speedFactor="1.01" vaporized=""/>
    <tripinfo id="0BEtoFR.0" depart="96.00" departLane="-30668#0_0" departPos="7.10" departSpeed="13.89" departDelay="0.00" arrival="440.00" arrivalLane="-31366#3_1" arrivalPos="20.69" arrivalSpeed="29.54" duration="344.00" routeLength="9433.02" waitingTime="0.00" waitingCount="0" stopTime="0.00" timeLoss="11.32" rerouteNo="0" devices="tripinfo_0BEtoFR.0" vType="passenger5" speedFactor="0.88" vaporized=""/>
    <tripinfo id="0FRtoLU.4" depart="192.00" departLane="-32426#0_0" departPos="4.60" departSpeed="13.89" departDelay="0.00" arrival="452.00" arrivalLane="-32400#5_0" arrivalPos="257.03" arrivalSpeed="34.98" duration="260.00" routeLength="6508.44" waitingTime="0.00" waitingCount="0" stopTime="0.00" timeLoss="16.36" rerouteNo="0" devices="tripinfo_0FRtoLU.4" vType="passenger2a" speedFactor="0.99" vaporized=""/>
    <tripinfo id="0DEtoFR.2" depart="14.00" departLane="-31622#0_0" departPos="5.10" departSpeed="13.89" departDelay="0.00" arrival="458.00" arrivalLane="-31366#3_1" arrivalPos="20.69" arrivalSpeed="39.12" duration="444.00" routeLength="15900.65" waitingTime="0.00" waitingCount="0" stopTime="0.00" timeLoss="14.70" rerouteNo="0" devices="tripinfo_0DEtoFR.2" vType="passenger1" speedFactor="1.09" vaporized=""/>
    <tripinfo id="0FRtoBE.0" depart="96.00" departLane="-32426#0_0" departPos="4.60" departSpeed="13.89" departDelay="0.00" arrival="465.00" arrivalLane="-31622#16_1" arrivalPos="305.81" arrivalSpeed="29.35" duration="369.00" routeLength="9592.32" waitingTime="0.00" waitingCount="0" stopTime="0.00" timeLoss="16.58" rerouteNo="0" devices="tripinfo_0FRtoBE.0" vType="passenger2b" speedFactor="0.85" vaporized=""/>
    <tripinfo id="0DEtoFR.1" depart="8.00" departLane="-31622#0_0" departPos="4.60" departSpeed="13.89" departDelay="0.00" arrival="473.00" arrivalLane="-31366#3_1" arrivalPos="20.69" arrivalSpeed="37.39" duration="465.00" routeLength="15901.15" waitingTime="0.00" waitingCount="0" stopTime="0.00" timeLoss="16.80" rerouteNo="0" devices="tripinfo_0DEtoFR.1" vType="passenger2b" speedFactor="1.05" vaporized=""/>
    <tripinfo id="randUni2416:1" depart="301.00" departLane="--32280#0_0" departPos="59.68" departSpeed="0.00" departDelay="0.00" arrival="476.00" arrivalLane="-31904#2_0" arrivalPos="20.06" arrivalSpeed="0.32" duration="175.00" routeLength="2093.78" waitingTime="0.00" waitingCount="0" stopTime="0.00" timeLoss="24.73" rerouteNo="0" devices="tripinfo_randUni2416:1" vType="passenger5" speedFactor="0.98" vaporized=""/>
    <tripinfo id="0LUtoDE.2" depart="205.00" departLane="-30706#0_0" departPos="4.60" departSpeed="13.89" departDelay="0.00" arrival="498.00" arrivalLane="-30668#16_1" arrivalPos="272.49" arrivalSpeed="41.13" duration="293.00" routeLength="10512.30" waitingTime="0.00" waitingCount="0" stopTime="0.00" timeLoss="12.69" rerouteNo="0" devices="tripinfo_0LUtoDE.2" vType="passenger2b" speedFactor="1.15" vaporized=""/>
    <tripinfo id="0FRtoBE.1" depart="190.00" departLane="-32426#0_0" departPos="4.60" departSpeed="13.89" departDelay="0.00" arrival="501.00" arrivalLane="-31622#16_1" arrivalPos="305.81" arrivalSpeed="35.89" duration="311.00" routeLength="9592.32" waitingTime="0.00" waitingCount="0" stopTime="0.00" timeLoss="16.08" rerouteNo="0" devices="tripinfo_0FRtoBE.1" vType="passenger2b" speedFactor="1.02" vaporized=""/>
    <tripinfo id="0BEtoFR.2" depart="215.00" departLane="-30668#0_0" departPos="4.60" departSpeed="13.89" departDelay="0.00" arrival="513.00" arrivalLane="-31366#3_1" arrivalPos="20.69" arrivalSpeed="34.26" duration="298.00" routeLength="9435.52" waitingTime="0.00" waitingCount="0" stopTime="0.00" timeLoss="12.43" rerouteNo="0" devices="tripinfo_0BEtoFR.2" vType="passenger2b" speedFactor="0.98" vaporized=""/>
    <tripinfo id="0LUtoBE.1" depart="133.00" departLane="-30706#0_0" departPos="5.10" departSpeed="13.89" departDelay="0.00" arrival="524.00" arrivalLane="-31622#16_1" arrivalPos="305.81" arrivalSpeed="35.11" duration="391.00" routeLength="11317.73" waitingTime="0.00" waitingCount="0" stopTime="0.00" timeLoss="19.42" rerouteNo="0" devices="tripinfo_0LUtoBE.1" vType="passenger1" speedFactor="1.00" vaporized=""/>
    <tripinfo id="0BEtoFR.3" depart="239.00" departLane="-30668#0_0" departPos="4.60" departSpeed="13.89" departDelay="0.00" arrival="524.00" arrivalLane="-31366#3_1" arrivalPos="20.69" arrivalSpeed="36.17" duration="285.00" routeLength="9435.52" waitingTime="0.00" waitingCount="0" stopTime="0.00" timeLoss="11.28" rerouteNo="0" devices="tripinfo_0BEtoFR.3" vType="passenger2a" speedFactor="1.02" vaporized=""/>
    <tripinfo id="0FRtoLU.5" depart="243.00" departLane="-32426#0_0" departPos="5.10" departSpeed="13.89" departDelay="0.00" arrival="529.00" arrivalLane="-32400#5_0" arrivalPos="257.03" arrivalSpeed="31.66" duration="286.00" routeLength="6507.94" waitingTime="0.00" waitingCount="0" stopTime="0.00" timeLoss="16.22" rerouteNo="0" devices="tripinfo_0FRtoLU.5" vType="passenger1" speedFactor="0.89" vaporized=""/>
    <tripinfo id="0DEtoLU.2" depart="160.00" departLane="-31622#0_0" departPos="5.10" departSpeed="13.89" departDelay="0.00" arrival="542.00" arrivalLane="-32400#5_1" arrivalPos="257.03" arrivalSpeed="33.71" duration="382.00" routeLength="11353.72" waitingTime="0.00" waitingCount="0" stopTime="0.00" timeLoss="17.80" rerouteNo="0" devices="tripinfo_0DEtoLU.2" vType="passenger1" speedFactor="0.97" vaporized=""/>
    <tripinfo id="0FRtoLU.6" depart="272.00" departLane="-32426#0_0" departPos="4.60" departSpeed="13.89" departDelay="0.00" arrival="554.00" arrivalLane="-32400#5_0" arrivalPos="257.03" arrivalSpeed="32.72" duration="282.00" routeLength="6508.44" waitingTime="0.00" waitingCount="0" stopTime="0.00" timeLoss="16.07" rerouteNo="0" devices="tripinfo_0FRtoLU.6" vType="passenger2b" speedFactor="0.91" vaporized=""/>
    <tripinfo id="randUni5174:1" depart="289.00" departLane="--32388_0" departPos="20.35" departSpeed="0.00" departDelay="0.00" arrival="558.00" arrivalLane="-30398#8_0" arrivalPos="10.66" arrivalSpeed="0.50" duration="269.00" routeLength="2320.94" waitingTime="73.00" waitingCount="2" stopTime="0.00" timeLoss="114.46" rerouteNo="0" devices="tripinfo_randUni5174:1" vType="passenger2a" speedFactor="1.06" vaporized=""/>
    <tripinfo id="randUni1024:1" depart="139.00" departLane="-32924#6_0" departPos="65.73" departSpeed="0.00" departDelay="0.00" arrival="563.00" arrivalLane="-32392#1_0" arrivalPos="3.73" arrivalSpeed="0.15" duration="424.00" routeLength="4016.30" waitingTime="89.00" waitingCount="4" stopTime="0.00" timeLoss="137.73" rerouteNo="0" devices="tripinfo_randUni1024:1" vType="passenger2b" speedFactor="0.99" vaporized=""/>
    <tripinfo id="randUni9228:1" depart="392.00" departLane="-31648#0_0" departPos="9.15" departSpeed="0.00" departDelay="0.00" arrival="565.00" arrivalLane="-30608#9_0" arrivalPos="2.09" arrivalSpeed="0.10" duration="173.00" routeLength="1895.02" waitingTime="14.00" waitingCount="1" stopTime="0.00" timeLoss="39.85" rerouteNo="0" devices="tripinfo_randUni9228:1" vType="passenger1" speedFactor="1.00" vaporized=""/>
    <tripinfo id="0LUtoFR.0" depart="235.00" departLane="-30706#0_0" departPos="5.10" departSpeed="13.89" departDelay="0.00" arrival="570.00" arrivalLane="-31366#3_1" arrivalPos="20.69" arrivalSpeed="36.41" duration="335.00" routeLength="8111.00" waitingTime="0.00" waitingCount="0" stopTime="0.00" timeLoss="38.39" rerouteNo="0" devices="tripinfo_0LUtoFR.0" vType="passenger1" speedFactor="1.04" vaporized=""/>
    <tripinfo id="0LUtoFR.1" depart="238.00" departLane="-30706#0_0" departPos="4.60" departSpeed="13.89" departDelay="0.00" arrival="573.00" arrivalLane="-31366#3_1" arrivalPos="20.69" arrivalSpeed="36.58" duration="335.00" routeLength="8111.50" waitingTime="0.00" waitingCount="0" stopTime="0.00" timeLoss="32.70" rerouteNo="0" devices="tripinfo_0LUtoFR.1" vType="passenger2a" speedFactor="1.02" vaporized=""/>
    <tripinfo id="0FRtoBE.2" depart="267.00" departLane="-32426#0_0" departPos="5.10" departSpeed="13.89" departDelay="0.00" arrival="581.00" arrivalLane="-31622#16_1" arrivalPos="305.81" arrivalSpeed="35.38" duration="314.00" routeLength="9591.82" waitingTime="0.00" waitingCount="0" stopTime="0.00" timeLoss="17.49" rerouteNo="0" devices="tripinfo_0FRtoBE.2" vType="passenger1" speedFactor="1.01" vaporized=""/>
    <tripinfo id="0DEtoFR.0" depart="0.00" departLane="-31622#0_0" departPos="5.10" departSpeed="13.89" departDelay="0.00" arrival="582.00" arrivalLane="-31366#3_1" arrivalPos="20.69" arrivalSpeed="28.82" duration="582.00" routeLength="15900.65" waitingTime="0.00" waitingCount="0" stopTime="0.00" timeLoss="18.89" rerouteNo="0" devices="tripinfo_0DEtoFR.0" vType="passenger1" speedFactor="0.83" vaporized=""/>
    <tripinfo id="0LUtoFR.2" depart="289.00" departLane="-30706#0_0" departPos="4.60" departSpeed="13.89" departDelay="0.00" arrival="585.00" arrivalLane="-31366#3_1" arrivalPos="20.69" arrivalSpeed="40.44" duration="296.00" routeLength="8111.50" waitingTime="0.00" waitingCount="0" stopTime="0.00" timeLoss="20.65" rerouteNo="0" devices="tripinfo_0LUtoFR.2" vType="passenger2a" speedFactor="1.12" vaporized=""/>
    <tripinfo id="randUni20481:1" depart="13.00" departLane="--32468#2_0" departPos="24.87" departSpeed="0.00" departDelay="0.00" arrival="589.00" arrivalLane="-30528#52_1" arrivalPos="16.11" arrivalSpeed="0.10" duration="576.00" routeLength="5807.44" waitingTime="116.00" waitingCount="5" stopTime="0.00" timeLoss="172.54" rerouteNo="0" devices="tripinfo_randUni20481:1" vType="passenger1" speedFactor="1.02" vaporized=""/>
    <tripinfo id="0BEtoLU.0" depart="237.00" departLane="-30668#0_0" departPos="5.10" departSpeed="13.89" departDelay="0.00" arrival="591.00" arrivalLane="-32400#5_0" arrivalPos="257.03" arrivalSpeed="36.31" duration="354.00" routeLength="10745.68" waitingTime="0.00" waitingCount="0" stopTime="0.00" timeLoss="14.75" rerouteNo="0" devices="tripinfo_0BEtoLU.0" vType="passenger1" speedFactor="1.01" vaporized=""/>
    <tripinfo id="0BEtoFR.4" depart="302.00" departLane="-30668#0_0" departPos="5.10" departSpeed="13.89" departDelay="0.00" arrival="605.00" arrivalLane="-31366#3_1" arrivalPos="20.69" arrivalSpeed="33.79" duration="303.00" routeLength="9435.02" waitingTime="0.00" waitingCount="0" stopTime="0.00" timeLoss="11.89" rerouteNo="0" devices="tripinfo_0BEtoFR.4" vType="passenger1" speedFactor="0.96" vaporized=""/>
    <tripinfo id="0DEtoLU.3" depart="265.00" departLane="-31622#0_0" departPos="5.10" departSpeed="13.89" departDelay="0.00" arrival="612.00" arrivalLane="-32400#5_1" arrivalPos="257.03" arrivalSpeed="37.48" duration="347.00" routeLength="11353.72" waitingTime="0.00" waitingCount="0" stopTime="0.00" timeLoss="12.87" rerouteNo="0" devices="tripinfo_0DEtoLU.3" vType="passenger1" speedFactor="1.06" vaporized=""/>
    <tripinfo id="0BEtoLU.2" depart="292.00" departLane="-30668#0_0" departPos="6.10" departSpeed="13.89" departDelay="0.00" arrival="617.00" arrivalLane="-32400#5_0" arrivalPos="257.03" arrivalSpeed="39.39" duration="325.00" routeLength="10744.68" waitingTime="0.00" waitingCount="0" stopTime="0.00" timeLoss="13.03" rerouteNo="0" devices="tripinfo_0BEtoLU.2" vType="passenger3" speedFactor="1.10" vaporized=""/>
    <tripinfo id="randUni7357:1" depart="102.00" departLane="-30988#3_0" departPos="17.29" departSpeed="0.00" departDelay="0.00" arrival="620.00" arrivalLane="-32190_0" arrivalPos="168.64" arrivalSpeed="0.10" duration="518.00" routeLength="5099.04" waitingTime="80.00" waitingCount="6" stopTime="0.00" timeLoss="133.99" rerouteNo="0" devices="tripinfo_randUni7357:1" vType="passenger1" speedFactor="0.93" vaporized=""/>
    <tripinfo id="0DEtoFR.4" depart="154.00" departLane="-31622#0_0" departPos="4.60" departSpeed="13.89" departDelay="0.00" arrival="631.00" arrivalLane="-31366#3_1" arrivalPos="20.69" arrivalSpeed="35.49" duration="477.00" routeLength="15901.15" waitingTime="0.00" waitingCount="0" stopTime="0.00" timeLoss="19.37" rerouteNo="0" devices="tripinfo_0DEtoFR.4" vType="passenger2a" speedFactor="1.02" vaporized=""/>
    <tripinfo id="0FRtoLU.7" depart="379.00" departLane="-32426#0_0" departPos="7.10" departSpeed="13.89" departDelay="0.00" arrival="640.00" arrivalLane="-32400#5_0" arrivalPos="257.03" arrivalSpeed="29.38" duration="261.00" routeLength="6505.94" waitingTime="0.00" waitingCount="0" stopTime="0.00" timeLoss="10.02" rerouteNo="0" devices="tripinfo_0FRtoLU.7" vType="passenger5" speedFactor="1.10" vaporized=""/>
    <tripinfo id="0LUtoDE.3" depart="303.00" departLane="-30706#0_0" departPos="4.60" departSpeed="13.89" departDelay="0.00" arrival="649.00" arrivalLane="-30668#16_1" arrivalPos="272.49" arrivalSpeed="34.77" duration="346.00" routeLength="10512.30" waitingTime="0.00" waitingCount="0" stopTime="0.00" timeLoss="13.31" rerouteNo="0" devices="tripinfo_0LUtoDE.3" vType="passenger2b" speedFactor="0.97" vaporized=""/>
    <tripinfo id="0FRtoBE.3" depart="344.00" departLane="-32426#0_0" departPos="4.60" departSpeed="13.89" departDelay="0.00" arrival="655.00" arrivalLane="-31622#16_1" arrivalPos="305.81" arrivalSpeed="35.33" duration="311.00" routeLength="9592.32" waitingTime="0.00" waitingCount="0" stopTime="0.00" timeLoss="15.73" rerouteNo="0" devices="tripinfo_0FRtoBE.3" vType="passenger2a" speedFactor="1.01" vaporized=""/>
    <tripinfo id="0FRtoBE.4" depart="359.00" departLane="-32426#0_0" departPos="5.10" departSpeed="13.89" departDelay="0.00" arrival="657.00" arrivalLane="-31622#16_1" arrivalPos="305.81" arrivalSpeed="37.32" duration="298.00" routeLength="9591.82" waitingTime="0.00" waitingCount="0" stopTime="0.00" timeLoss="16.80" rerouteNo="0" devices="tripinfo_0FRtoBE.4" vType="passenger1" speedFactor="1.06" vaporized=""/>
    <tripinfo id="0DEtoFR.3" depart="98.00" departLane="-31622#0_0" departPos="5.10" departSpeed="13.89" departDelay="0.00" arrival="663.00" arrivalLane="-31366#3_1" arrivalPos="20.69" arrivalSpeed="30.10" duration="565.00" routeLength="15900.65" waitingTime="0.00" waitingCount="0" stopTime="0.00" timeLoss="17.24" rerouteNo="0" devices="tripinfo_0DEtoFR.3" vType="passenger1" speedFactor="0.85" vaporized=""/>
    <tripinfo id="0LUtoFR.3" depart="315.00" departLane="-30706#0_0" departPos="5.10" departSpeed="13.89" departDelay="0.00" arrival="665.00" arrivalLane="-31366#3_1" arrivalPos="20.69" arrivalSpeed="33.38" duration="350.00" routeLength="8111.00" waitingTime="0.00" waitingCount="0" stopTime="0.00" timeLoss="25.37" rerouteNo="0" devices="tripinfo_0LUtoFR.3" vType="passenger1" speedFactor="0.95" vaporized=""/>
    <tripinfo id="0DEtoBE.2" depart="183.00" departLane="-31622#0_0" departPos="4.60" departSpeed="13.89" departDelay="0.00" arrival="669.00" arrivalLane="-31622#16_2" arrivalPos="305.81" arrivalSpeed="39.56" duration="486.00" routeLength="19107.88" waitingTime="0.00" waitingCount="0" stopTime="0.00" timeLoss="13.10" rerouteNo="0" devices="tripinfo_0DEtoBE.2" vType="passenger2a" speedFactor="1.12" vaporized=""/>
    <tripinfo id="0BEtoLU.1" depart="248.00" departLane="-30668#0_0" departPos="5.10" departSpeed="13.89" departDelay="0.00" arrival="674.00" arrivalLane="-32400#5_0" arrivalPos="257.03" arrivalSpeed="29.66" duration="426.00" routeLength="10745.68" waitingTime="0.00" waitingCount="0" stopTime="0.00" timeLoss="15.76" rerouteNo="0" devices="tripinfo_0BEtoLU.1" vType="passenger1" speedFactor="0.83" vaporized=""/>
    <tripinfo id="0DEtoBE.1" depart="180.00" departLane="-31622#0_0" departPos="5.10" departSpeed="13.89" departDelay="0.00" arrival="682.00" arrivalLane="-31622#16_2" arrivalPos="305.81" arrivalSpeed="38.22" duration="502.00" routeLength="19107.38" waitingTime="0.00" waitingCount="0" stopTime="0.00" timeLoss="12.47" rerouteNo="0" devices="tripinfo_0DEtoBE.1" vType="passenger1" speedFactor="1.08" vaporized=""/>
    <tripinfo id="0DEtoLU.4" depart="340.00" departLane="-31622#0_0" departPos="6.10" departSpeed="13.89" departDelay="0.00" arrival="682.00" arrivalLane="-32400#5_1" arrivalPos="257.03" arrivalSpeed="38.43" duration="342.00" routeLength="11352.72" waitingTime="0.00" waitingCount="0" stopTime="0.00" timeLoss="13.00" rerouteNo="0" devices="tripinfo_0DEtoLU.4" vType="passenger3" speedFactor="1.07" vaporized=""/>
    <tripinfo id="0BEtoFR.5" depart="441.00" departLane="-30668#0_0" departPos="6.10" departSpeed="13.89" departDelay="0.00" arrival="692.00" arrivalLane="-31366#3_1" arrivalPos="20.69" arrivalSpeed="40.96" duration="251.00" routeLength="9434.02" waitingTime="0.00" waitingCount="0" stopTime="0.00" timeLoss="11.53" rerouteNo="0" devices="tripinfo_0BEtoFR.5" vType="passenger3" speedFactor="1.16" vaporized=""/>
    <tripinfo id="0FRtoLU.8" depart="405.00" departLane="-32426#0_0" departPos="5.60" departSpeed="13.89" departDelay="0.00" arrival="693.00" arrivalLane="-32400#5_0" arrivalPos="257.03" arrivalSpeed="29.42" duration="288.00" routeLength="6507.44" waitingTime="0.00" waitingCount="0" stopTime="0.00" timeLoss="13.63" rerouteNo="0" devices="tripinfo_0FRtoLU.8" vType="passenger4" speedFactor="0.92" vaporized=""/>
    <tripinfo id="0FRtoLU.9" depart="470.00" departLane="-32426#0_0" departPos="5.10" departSpeed="13.89" departDelay="0.00" arrival="696.00" arrivalLane="-32400#5_0" arrivalPos="257.03" arrivalSpeed="40.86" duration="226.00" routeLength="6507.94" waitingTime="0.00" waitingCount="0" stopTime="0.00" timeLoss="15.28" rerouteNo="0" devices="tripinfo_0FRtoLU.9" vType="passenger1" speedFactor="1.14" vaporized=""/>
    <tripinfo id="0LUtoDE.4" depart="324.00" departLane="-30706#0_0" departPos="5.10" departSpeed="13.89" departDelay="0.00" arrival="697.00" arrivalLane="-30668#16_1" arrivalPos="272.49" arrivalSpeed="32.12" duration="373.00" routeLength="10511.80" waitingTime="0.00" waitingCount="0" stopTime="0.00" timeLoss="13.21" rerouteNo="0" devices="tripinfo_0LUtoDE.4" vType="passenger1" speedFactor="0.89" vaporized=""/>
    <tripinfo id="CNA____NBNA_0" depart="2.00" departLane="-32278#1_0" departPos="0.00" departSpeed="0.00" departDelay="0.00" arrival="706.00" arrivalLane="--32924#0_0" arrivalPos="360.91" arrivalSpeed="13.87" duration="704.00" routeLength="5754.48" waitingTime="113.00" waitingCount="6" stopTime="120.00" timeLoss="201.52" rerouteNo="0" devices="tripinfo_CNA____NBNA_0" vType="bus" speedFactor="1.06" vaporized=""/>
    <tripinfo id="randUni4383:1" depart="479.00" departLane="--30872#10_0" departPos="4.65" departSpeed="0.00" departDelay="0.00" arrival="706.00" arrivalLane="-32716#0_0" arrivalPos="75.34" arrivalSpeed="1.33" duration="227.00" routeLength="2257.38" waitingTime="61.00" waitingCount="2" stopTime="0.00" timeLoss="89.99" rerouteNo="0" devices="tripinfo_randUni4383:1" vType="passenger2b" speedFactor="1.12" vaporized=""/>
    <tripinfo id="0DEtoFR.6" depart="224.00" departLane="-31622#0_0" departPos="5.10" departSpeed="13.89" departDelay="0.00" arrival="709.00" arrivalLane="-31366#3_1" arrivalPos="20.69" arrivalSpeed="35.68" duration="485.00" routeLength="15900.65" waitingTime="0.00" waitingCount="0" stopTime="0.00" timeLoss="16.65" rerouteNo="0" devices="tripinfo_0DEtoFR.6" vType="passenger1" speedFactor="1.00" vaporized=""/>
    <tripinfo id="randUni1785:1" depart="192.00" departLane="-30458#3_0" departPos="30.46" departSpeed="0.00" departDelay="0.00" arrival="718.00" arrivalLane="--32650#6_0" arrivalPos="55.30" arrivalSpeed="1.19" duration="526.00" routeLength="6455.78" waitingTime="1.00" waitingCount="1" stopTime="0.00" timeLoss="55.03" rerouteNo="0" devices="tripinfo_randUni1785:1" vType="passenger1" speedFactor="0.97" vaporized=""/>